<?xml version="1.0" encoding="UTF-8"?>

<!-- generated on 2021-11-16 14:05:57 by Eclipse SUMO dfrouter Version 1.10.0
<configuration xmlns:xsi="http://www.w3.org/2001/XMLSchema-instance" xsi:noNamespaceSchemaLocation="http://sumo.dlr.de/xsd/dfrouterConfiguration.xsd">

    <input>
        <net-file value="InTAS_Crossing.net.xml"/>
        <detector-files value="SaturnArena.add.xml"/>
        <measure-files value="flowData.xml"/>
    </input>

    <output>
        <routes-output value="InTAS_Crossing.rou.xml"/>
        <emitters-output value="vehicles.rou.xml"/>
    </output>

    <report>
        <no-warnings value="true"/>
    </report>

    <random_number>
        <seed value="111315"/>
    </random_number>

</configuration>
-->

<additional xmlns:xsi="http://www.w3.org/2001/XMLSchema-instance" xsi:noNamespaceSchemaLocation="http://sumo.dlr.de/xsd/additional_file.xsd">
    <vType id="DEFAULT_VEHTYPE" speedFactor="normc(1.00,0.10,0.20,2.00)"/>
    <routeDistribution id="SaturnArena15">
        <route refId="354967545#0.45_to_141058765#1" probability="0.78"/>
        <route refId="354967545#0.45_to_-25188983#0" probability="0.02"/>
        <route refId="354967545#0.45_to_-266887590#0" probability="0.20"/>
    </routeDistribution>
    <vehicle id="SaturnArena15.0" depart="15540.00" departLane="4" departPos="2.97" departSpeed="36.65" route="354967545#0.45_to_141058765#1"/>
    <vehicle id="SaturnArena15.1" depart="17460.00" departLane="4" departPos="2.97" departSpeed="13.93" route="354967545#0.45_to_141058765#1"/>
    <vehicle id="SaturnArena15.2" depart="21780.00" departLane="4" departPos="2.97" departSpeed="12.69" route="354967545#0.45_to_141058765#1"/>
    <vehicle id="SaturnArena15.3" depart="22200.00" departLane="4" departPos="2.97" departSpeed="14.80" route="354967545#0.45_to_141058765#1"/>
    <vehicle id="SaturnArena15.4" depart="22920.00" departLane="4" departPos="2.97" departSpeed="15.25" route="354967545#0.45_to_141058765#1"/>
    <vehicle id="SaturnArena15.5" depart="23520.00" departLane="4" departPos="2.97" departSpeed="14.06" route="354967545#0.45_to_141058765#1"/>
    <vehicle id="SaturnArena15.6" depart="23700.00" departLane="4" departPos="2.97" departSpeed="18.55" route="354967545#0.45_to_-266887590#0"/>
    <vehicle id="SaturnArena15.7" depart="23760.00" departLane="4" departPos="2.97" departSpeed="14.34" route="354967545#0.45_to_141058765#1"/>
    <vehicle id="SaturnArena15.8" depart="24240.00" departLane="4" departPos="2.97" departSpeed="16.84" route="354967545#0.45_to_141058765#1"/>
    <vehicle id="SaturnArena15.9" depart="24300.00" departLane="4" departPos="2.97" departSpeed="15.08" route="354967545#0.45_to_141058765#1"/>
    <vehicle id="SaturnArena15.10" depart="24780.00" departLane="4" departPos="2.97" departSpeed="16.83" route="354967545#0.45_to_141058765#1"/>
    <vehicle id="SaturnArena15.11" depart="24960.00" departLane="4" departPos="2.97" departSpeed="16.80" route="354967545#0.45_to_141058765#1"/>
    <vehicle id="SaturnArena15.12" depart="25080.00" departLane="4" departPos="2.97" departSpeed="14.70" route="354967545#0.45_to_-266887590#0"/>
    <vehicle id="SaturnArena15.13" depart="25380.00" departLane="4" departPos="2.97" departSpeed="13.05" route="354967545#0.45_to_-266887590#0"/>
    <vehicle id="SaturnArena15.14" depart="25620.00" departLane="4" departPos="2.97" departSpeed="12.40" route="354967545#0.45_to_-266887590#0"/>
    <vehicle id="SaturnArena15.15" depart="25650.00" departLane="4" departPos="2.97" departSpeed="12.40" route="354967545#0.45_to_141058765#1"/>
    <vehicle id="SaturnArena15.16" depart="25680.00" departLane="4" departPos="2.97" departSpeed="11.01" route="354967545#0.45_to_141058765#1"/>
    <vehicle id="SaturnArena15.17" depart="25690.00" departLane="4" departPos="2.97" departSpeed="11.01" route="354967545#0.45_to_141058765#1"/>
    <vehicle id="SaturnArena15.18" depart="25700.00" departLane="4" departPos="2.97" departSpeed="11.01" route="354967545#0.45_to_-266887590#0"/>
    <vehicle id="SaturnArena15.19" depart="25710.00" departLane="4" departPos="2.97" departSpeed="11.01" route="354967545#0.45_to_141058765#1"/>
    <vehicle id="SaturnArena15.20" depart="25720.00" departLane="4" departPos="2.97" departSpeed="11.01" route="354967545#0.45_to_-266887590#0"/>
    <vehicle id="SaturnArena15.21" depart="25730.00" departLane="4" departPos="2.97" departSpeed="11.01" route="354967545#0.45_to_141058765#1"/>
    <vehicle id="SaturnArena15.22" depart="25740.00" departLane="4" departPos="2.97" departSpeed="12.55" route="354967545#0.45_to_141058765#1"/>
    <vehicle id="SaturnArena15.23" depart="25755.00" departLane="4" departPos="2.97" departSpeed="12.55" route="354967545#0.45_to_141058765#1"/>
    <vehicle id="SaturnArena15.24" depart="25770.00" departLane="4" departPos="2.97" departSpeed="12.55" route="354967545#0.45_to_-266887590#0"/>
    <vehicle id="SaturnArena15.25" depart="25785.00" departLane="4" departPos="2.97" departSpeed="12.55" route="354967545#0.45_to_141058765#1"/>
    <vehicle id="SaturnArena15.26" depart="25800.00" departLane="4" departPos="2.97" departSpeed="12.75" route="354967545#0.45_to_141058765#1"/>
    <vehicle id="SaturnArena15.27" depart="25860.00" departLane="4" departPos="2.97" departSpeed="10.00" route="354967545#0.45_to_141058765#1"/>
    <vehicle id="SaturnArena15.28" depart="25920.00" departLane="4" departPos="2.97" departSpeed="13.01" route="354967545#0.45_to_-266887590#0"/>
    <vehicle id="SaturnArena15.29" depart="25932.00" departLane="4" departPos="2.97" departSpeed="13.01" route="354967545#0.45_to_-266887590#0"/>
    <vehicle id="SaturnArena15.30" depart="25944.00" departLane="4" departPos="2.97" departSpeed="13.01" route="354967545#0.45_to_141058765#1"/>
    <vehicle id="SaturnArena15.31" depart="25956.00" departLane="4" departPos="2.97" departSpeed="13.01" route="354967545#0.45_to_141058765#1"/>
    <vehicle id="SaturnArena15.32" depart="25968.00" departLane="4" departPos="2.97" departSpeed="13.01" route="354967545#0.45_to_141058765#1"/>
    <vehicle id="SaturnArena15.33" depart="26400.00" departLane="4" departPos="2.97" departSpeed="13.26" route="354967545#0.45_to_141058765#1"/>
    <vehicle id="SaturnArena15.34" depart="26520.00" departLane="4" departPos="2.97" departSpeed="10.83" route="354967545#0.45_to_141058765#1"/>
    <vehicle id="SaturnArena15.35" depart="27120.00" departLane="4" departPos="2.97" departSpeed="14.85" route="354967545#0.45_to_141058765#1"/>
    <vehicle id="SaturnArena15.36" depart="27360.00" departLane="4" departPos="2.97" departSpeed="22.77" route="354967545#0.45_to_-266887590#0"/>
    <vehicle id="SaturnArena15.37" depart="27660.00" departLane="4" departPos="2.97" departSpeed="20.24" route="354967545#0.45_to_141058765#1"/>
    <vehicle id="SaturnArena15.38" depart="28200.00" departLane="4" departPos="2.97" departSpeed="15.91" route="354967545#0.45_to_141058765#1"/>
    <vehicle id="SaturnArena15.39" depart="28860.00" departLane="4" departPos="2.97" departSpeed="12.38" route="354967545#0.45_to_141058765#1"/>
    <vehicle id="SaturnArena15.40" depart="29160.00" departLane="4" departPos="2.97" departSpeed="14.51" route="354967545#0.45_to_141058765#1"/>
    <vehicle id="SaturnArena15.41" depart="29190.00" departLane="4" departPos="2.97" departSpeed="14.51" route="354967545#0.45_to_141058765#1"/>
    <vehicle id="SaturnArena15.42" depart="29280.00" departLane="4" departPos="2.97" departSpeed="18.36" route="354967545#0.45_to_141058765#1"/>
    <vehicle id="SaturnArena15.43" depart="29310.00" departLane="4" departPos="2.97" departSpeed="18.36" route="354967545#0.45_to_-266887590#0"/>
    <vehicle id="SaturnArena15.44" depart="29340.00" departLane="4" departPos="2.97" departSpeed="13.36" route="354967545#0.45_to_141058765#1"/>
    <vehicle id="SaturnArena15.45" depart="29360.00" departLane="4" departPos="2.97" departSpeed="13.36" route="354967545#0.45_to_141058765#1"/>
    <vehicle id="SaturnArena15.46" depart="29380.00" departLane="4" departPos="2.97" departSpeed="13.36" route="354967545#0.45_to_141058765#1"/>
    <vehicle id="SaturnArena15.47" depart="29400.00" departLane="4" departPos="2.97" departSpeed="15.03" route="354967545#0.45_to_141058765#1"/>
    <vehicle id="SaturnArena15.48" depart="29520.00" departLane="4" departPos="2.97" departSpeed="35.00" route="354967545#0.45_to_141058765#1"/>
    <vehicle id="SaturnArena15.49" depart="29700.00" departLane="4" departPos="2.97" departSpeed="26.73" route="354967545#0.45_to_141058765#1"/>
    <vehicle id="SaturnArena15.50" depart="29820.00" departLane="4" departPos="2.97" departSpeed="14.69" route="354967545#0.45_to_141058765#1"/>
    <vehicle id="SaturnArena15.51" depart="29940.00" departLane="4" departPos="2.97" departSpeed="13.66" route="354967545#0.45_to_141058765#1"/>
    <vehicle id="SaturnArena15.52" depart="30120.00" departLane="4" departPos="2.97" departSpeed="14.79" route="354967545#0.45_to_-266887590#0"/>
    <vehicle id="SaturnArena15.53" depart="31440.00" departLane="4" departPos="2.97" departSpeed="12.77" route="354967545#0.45_to_-266887590#0"/>
    <vehicle id="SaturnArena15.54" depart="31620.00" departLane="4" departPos="2.97" departSpeed="15.07" route="354967545#0.45_to_141058765#1"/>
    <vehicle id="SaturnArena15.55" depart="31680.00" departLane="4" departPos="2.97" departSpeed="12.58" route="354967545#0.45_to_141058765#1"/>
    <vehicle id="SaturnArena15.56" depart="31700.00" departLane="4" departPos="2.97" departSpeed="12.58" route="354967545#0.45_to_-266887590#0"/>
    <vehicle id="SaturnArena15.57" depart="31720.00" departLane="4" departPos="2.97" departSpeed="12.58" route="354967545#0.45_to_141058765#1"/>
    <vehicle id="SaturnArena15.58" depart="31800.00" departLane="4" departPos="2.97" departSpeed="16.15" route="354967545#0.45_to_141058765#1"/>
    <vehicle id="SaturnArena15.59" depart="31860.00" departLane="4" departPos="2.97" departSpeed="9.17" route="354967545#0.45_to_141058765#1"/>
    <vehicle id="SaturnArena15.60" depart="31890.00" departLane="4" departPos="2.97" departSpeed="9.17" route="354967545#0.45_to_141058765#1"/>
    <vehicle id="SaturnArena15.61" depart="31920.00" departLane="4" departPos="2.97" departSpeed="11.91" route="354967545#0.45_to_141058765#1"/>
    <vehicle id="SaturnArena15.62" depart="31950.00" departLane="4" departPos="2.97" departSpeed="11.91" route="354967545#0.45_to_141058765#1"/>
    <vehicle id="SaturnArena15.63" depart="31980.00" departLane="4" departPos="2.97" departSpeed="13.27" route="354967545#0.45_to_141058765#1"/>
    <vehicle id="SaturnArena15.64" depart="32040.00" departLane="4" departPos="2.97" departSpeed="12.59" route="354967545#0.45_to_-266887590#0"/>
    <vehicle id="SaturnArena15.65" depart="32070.00" departLane="4" departPos="2.97" departSpeed="12.59" route="354967545#0.45_to_141058765#1"/>
    <vehicle id="SaturnArena15.66" depart="33420.00" departLane="4" departPos="2.97" departSpeed="14.25" route="354967545#0.45_to_141058765#1"/>
    <vehicle id="SaturnArena15.67" depart="34560.00" departLane="4" departPos="2.97" departSpeed="13.93" route="354967545#0.45_to_141058765#1"/>
    <vehicle id="SaturnArena15.68" depart="34800.00" departLane="4" departPos="2.97" departSpeed="13.79" route="354967545#0.45_to_-266887590#0"/>
    <vehicle id="SaturnArena15.69" depart="35160.00" departLane="4" departPos="2.97" departSpeed="15.08" route="354967545#0.45_to_141058765#1"/>
    <vehicle id="SaturnArena15.70" depart="35340.00" departLane="4" departPos="2.97" departSpeed="16.40" route="354967545#0.45_to_-25188983#0"/>
    <vehicle id="SaturnArena15.71" depart="36240.00" departLane="4" departPos="2.97" departSpeed="31.42" route="354967545#0.45_to_-266887590#0"/>
    <vehicle id="SaturnArena15.72" depart="36300.00" departLane="4" departPos="2.97" departSpeed="14.01" route="354967545#0.45_to_141058765#1"/>
    <vehicle id="SaturnArena15.73" depart="36360.00" departLane="4" departPos="2.97" departSpeed="12.20" route="354967545#0.45_to_141058765#1"/>
    <vehicle id="SaturnArena15.74" depart="36390.00" departLane="4" departPos="2.97" departSpeed="12.20" route="354967545#0.45_to_141058765#1"/>
    <vehicle id="SaturnArena15.75" depart="36480.00" departLane="4" departPos="2.97" departSpeed="26.94" route="354967545#0.45_to_-266887590#0"/>
    <vehicle id="SaturnArena15.76" depart="37440.00" departLane="4" departPos="2.97" departSpeed="13.53" route="354967545#0.45_to_141058765#1"/>
    <vehicle id="SaturnArena15.77" depart="39360.00" departLane="4" departPos="2.97" departSpeed="14.47" route="354967545#0.45_to_141058765#1"/>
    <vehicle id="SaturnArena15.78" depart="39480.00" departLane="4" departPos="2.97" departSpeed="16.37" route="354967545#0.45_to_-266887590#0"/>
    <vehicle id="SaturnArena15.79" depart="40020.00" departLane="4" departPos="2.97" departSpeed="15.07" route="354967545#0.45_to_141058765#1"/>
    <vehicle id="SaturnArena15.80" depart="40680.00" departLane="4" departPos="2.97" departSpeed="18.82" route="354967545#0.45_to_-266887590#0"/>
    <vehicle id="SaturnArena15.81" depart="40980.00" departLane="4" departPos="2.97" departSpeed="12.84" route="354967545#0.45_to_141058765#1"/>
    <vehicle id="SaturnArena15.82" depart="42480.00" departLane="4" departPos="2.97" departSpeed="14.47" route="354967545#0.45_to_141058765#1"/>
    <vehicle id="SaturnArena15.83" depart="42600.00" departLane="4" departPos="2.97" departSpeed="14.52" route="354967545#0.45_to_141058765#1"/>
    <vehicle id="SaturnArena15.84" depart="43440.00" departLane="4" departPos="2.97" departSpeed="15.76" route="354967545#0.45_to_141058765#1"/>
    <vehicle id="SaturnArena15.85" depart="43620.00" departLane="4" departPos="2.97" departSpeed="27.91" route="354967545#0.45_to_141058765#1"/>
    <vehicle id="SaturnArena15.86" depart="43740.00" departLane="4" departPos="2.97" departSpeed="12.65" route="354967545#0.45_to_141058765#1"/>
    <vehicle id="SaturnArena15.87" depart="44520.00" departLane="4" departPos="2.97" departSpeed="13.59" route="354967545#0.45_to_-266887590#0"/>
    <vehicle id="SaturnArena15.88" depart="44880.00" departLane="4" departPos="2.97" departSpeed="14.44" route="354967545#0.45_to_141058765#1"/>
    <vehicle id="SaturnArena15.89" depart="45840.00" departLane="4" departPos="2.97" departSpeed="13.88" route="354967545#0.45_to_141058765#1"/>
    <vehicle id="SaturnArena15.90" depart="47760.00" departLane="4" departPos="2.97" departSpeed="12.12" route="354967545#0.45_to_141058765#1"/>
    <vehicle id="SaturnArena15.91" depart="47790.00" departLane="4" departPos="2.97" departSpeed="12.12" route="354967545#0.45_to_141058765#1"/>
    <vehicle id="SaturnArena15.92" depart="47820.00" departLane="4" departPos="2.97" departSpeed="11.25" route="354967545#0.45_to_141058765#1"/>
    <vehicle id="SaturnArena15.93" depart="47840.00" departLane="4" departPos="2.97" departSpeed="11.25" route="354967545#0.45_to_141058765#1"/>
    <vehicle id="SaturnArena15.94" depart="47860.00" departLane="4" departPos="2.97" departSpeed="11.25" route="354967545#0.45_to_141058765#1"/>
    <vehicle id="SaturnArena15.95" depart="47880.00" departLane="4" departPos="2.97" departSpeed="7.80" route="354967545#0.45_to_141058765#1"/>
    <vehicle id="SaturnArena15.96" depart="47940.00" departLane="4" departPos="2.97" departSpeed="16.38" route="354967545#0.45_to_-266887590#0"/>
    <vehicle id="SaturnArena15.97" depart="48060.00" departLane="4" departPos="2.97" departSpeed="11.98" route="354967545#0.45_to_141058765#1"/>
    <vehicle id="SaturnArena15.98" depart="48090.00" departLane="4" departPos="2.97" departSpeed="11.98" route="354967545#0.45_to_141058765#1"/>
    <vehicle id="SaturnArena15.99" depart="49680.00" departLane="4" departPos="2.97" departSpeed="15.65" route="354967545#0.45_to_141058765#1"/>
    <vehicle id="SaturnArena15.100" depart="49920.00" departLane="4" departPos="2.97" departSpeed="28.52" route="354967545#0.45_to_141058765#1"/>
    <vehicle id="SaturnArena15.101" depart="49950.00" departLane="4" departPos="2.97" departSpeed="28.52" route="354967545#0.45_to_141058765#1"/>
    <vehicle id="SaturnArena15.102" depart="49980.00" departLane="4" departPos="2.97" departSpeed="10.19" route="354967545#0.45_to_141058765#1"/>
    <vehicle id="SaturnArena15.103" depart="49990.00" departLane="4" departPos="2.97" departSpeed="10.19" route="354967545#0.45_to_141058765#1"/>
    <vehicle id="SaturnArena15.104" depart="50000.00" departLane="4" departPos="2.97" departSpeed="10.19" route="354967545#0.45_to_141058765#1"/>
    <vehicle id="SaturnArena15.105" depart="50010.00" departLane="4" departPos="2.97" departSpeed="10.19" route="354967545#0.45_to_-266887590#0"/>
    <vehicle id="SaturnArena15.106" depart="50020.00" departLane="4" departPos="2.97" departSpeed="10.19" route="354967545#0.45_to_141058765#1"/>
    <vehicle id="SaturnArena15.107" depart="50030.00" departLane="4" departPos="2.97" departSpeed="10.19" route="354967545#0.45_to_-266887590#0"/>
    <vehicle id="SaturnArena15.108" depart="50040.00" departLane="4" departPos="2.97" departSpeed="11.43" route="354967545#0.45_to_-266887590#0"/>
    <vehicle id="SaturnArena15.109" depart="50070.00" departLane="4" departPos="2.97" departSpeed="11.43" route="354967545#0.45_to_141058765#1"/>
    <vehicle id="SaturnArena15.110" depart="50100.00" departLane="4" departPos="2.97" departSpeed="12.10" route="354967545#0.45_to_141058765#1"/>
    <vehicle id="SaturnArena15.111" depart="50130.00" departLane="4" departPos="2.97" departSpeed="12.10" route="354967545#0.45_to_141058765#1"/>
    <vehicle id="SaturnArena15.112" depart="50160.00" departLane="4" departPos="2.97" departSpeed="14.24" route="354967545#0.45_to_141058765#1"/>
    <vehicle id="SaturnArena15.113" depart="50220.00" departLane="4" departPos="2.97" departSpeed="11.81" route="354967545#0.45_to_141058765#1"/>
    <vehicle id="SaturnArena15.114" depart="50235.00" departLane="4" departPos="2.97" departSpeed="11.81" route="354967545#0.45_to_141058765#1"/>
    <vehicle id="SaturnArena15.115" depart="50250.00" departLane="4" departPos="2.97" departSpeed="11.81" route="354967545#0.45_to_141058765#1"/>
    <vehicle id="SaturnArena15.116" depart="50265.00" departLane="4" departPos="2.97" departSpeed="11.81" route="354967545#0.45_to_-266887590#0"/>
    <vehicle id="SaturnArena15.117" depart="50280.00" departLane="4" departPos="2.97" departSpeed="13.10" route="354967545#0.45_to_-266887590#0"/>
    <vehicle id="SaturnArena15.118" depart="50340.00" departLane="4" departPos="2.97" departSpeed="14.91" route="354967545#0.45_to_141058765#1"/>
    <vehicle id="SaturnArena15.119" depart="50640.00" departLane="4" departPos="2.97" departSpeed="15.45" route="354967545#0.45_to_141058765#1"/>
    <vehicle id="SaturnArena15.120" depart="52500.00" departLane="4" departPos="2.97" departSpeed="13.60" route="354967545#0.45_to_141058765#1"/>
    <vehicle id="SaturnArena15.121" depart="53280.00" departLane="4" departPos="2.97" departSpeed="14.01" route="354967545#0.45_to_141058765#1"/>
    <vehicle id="SaturnArena15.122" depart="53400.00" departLane="4" departPos="2.97" departSpeed="12.88" route="354967545#0.45_to_141058765#1"/>
    <vehicle id="SaturnArena15.123" depart="53430.00" departLane="4" departPos="2.97" departSpeed="12.88" route="354967545#0.45_to_141058765#1"/>
    <vehicle id="SaturnArena15.124" depart="54000.00" departLane="4" departPos="2.97" departSpeed="13.01" route="354967545#0.45_to_-266887590#0"/>
    <vehicle id="SaturnArena15.125" depart="54060.00" departLane="4" departPos="2.97" departSpeed="14.54" route="354967545#0.45_to_141058765#1"/>
    <vehicle id="SaturnArena15.126" depart="55080.00" departLane="4" departPos="2.97" departSpeed="35.29" route="354967545#0.45_to_141058765#1"/>
    <vehicle id="SaturnArena15.127" depart="55440.00" departLane="4" departPos="2.97" departSpeed="15.31" route="354967545#0.45_to_141058765#1"/>
    <vehicle id="SaturnArena15.128" depart="55500.00" departLane="4" departPos="2.97" departSpeed="15.15" route="354967545#0.45_to_141058765#1"/>
    <vehicle id="SaturnArena15.129" depart="55530.00" departLane="4" departPos="2.97" departSpeed="15.15" route="354967545#0.45_to_141058765#1"/>
    <vehicle id="SaturnArena15.130" depart="55620.00" departLane="4" departPos="2.97" departSpeed="12.49" route="354967545#0.45_to_141058765#1"/>
    <vehicle id="SaturnArena15.131" depart="55632.00" departLane="4" departPos="2.97" departSpeed="12.49" route="354967545#0.45_to_141058765#1"/>
    <vehicle id="SaturnArena15.132" depart="55644.00" departLane="4" departPos="2.97" departSpeed="12.49" route="354967545#0.45_to_141058765#1"/>
    <vehicle id="SaturnArena15.133" depart="55656.00" departLane="4" departPos="2.97" departSpeed="12.49" route="354967545#0.45_to_141058765#1"/>
    <vehicle id="SaturnArena15.134" depart="55668.00" departLane="4" departPos="2.97" departSpeed="12.49" route="354967545#0.45_to_141058765#1"/>
    <vehicle id="SaturnArena15.135" depart="55680.00" departLane="4" departPos="2.97" departSpeed="15.17" route="354967545#0.45_to_141058765#1"/>
    <vehicle id="SaturnArena15.136" depart="55710.00" departLane="4" departPos="2.97" departSpeed="15.17" route="354967545#0.45_to_141058765#1"/>
    <vehicle id="SaturnArena15.137" depart="55920.00" departLane="4" departPos="2.97" departSpeed="14.71" route="354967545#0.45_to_141058765#1"/>
    <vehicle id="SaturnArena15.138" depart="55940.00" departLane="4" departPos="2.97" departSpeed="14.71" route="354967545#0.45_to_141058765#1"/>
    <vehicle id="SaturnArena15.139" depart="55960.00" departLane="4" departPos="2.97" departSpeed="14.71" route="354967545#0.45_to_141058765#1"/>
    <vehicle id="SaturnArena15.140" depart="55980.00" departLane="4" departPos="2.97" departSpeed="10.84" route="354967545#0.45_to_141058765#1"/>
    <vehicle id="SaturnArena15.141" depart="56040.00" departLane="4" departPos="2.97" departSpeed="43.73" route="354967545#0.45_to_-266887590#0"/>
    <vehicle id="SaturnArena15.142" depart="56280.00" departLane="4" departPos="2.97" departSpeed="12.70" route="354967545#0.45_to_141058765#1"/>
    <vehicle id="SaturnArena15.143" depart="56400.00" departLane="4" departPos="2.97" departSpeed="12.08" route="354967545#0.45_to_-266887590#0"/>
    <vehicle id="SaturnArena15.144" depart="56520.00" departLane="4" departPos="2.97" departSpeed="16.85" route="354967545#0.45_to_141058765#1"/>
    <vehicle id="SaturnArena15.145" depart="56540.00" departLane="4" departPos="2.97" departSpeed="16.85" route="354967545#0.45_to_141058765#1"/>
    <vehicle id="SaturnArena15.146" depart="56560.00" departLane="4" departPos="2.97" departSpeed="16.85" route="354967545#0.45_to_-25188983#0"/>
    <vehicle id="SaturnArena15.147" depart="56580.00" departLane="4" departPos="2.97" departSpeed="10.85" route="354967545#0.45_to_141058765#1"/>
    <vehicle id="SaturnArena15.148" depart="56880.00" departLane="4" departPos="2.97" departSpeed="13.25" route="354967545#0.45_to_141058765#1"/>
    <vehicle id="SaturnArena15.149" depart="56900.00" departLane="4" departPos="2.97" departSpeed="13.25" route="354967545#0.45_to_141058765#1"/>
    <vehicle id="SaturnArena15.150" depart="56920.00" departLane="4" departPos="2.97" departSpeed="13.25" route="354967545#0.45_to_-266887590#0"/>
    <vehicle id="SaturnArena15.151" depart="56940.00" departLane="4" departPos="2.97" departSpeed="13.43" route="354967545#0.45_to_141058765#1"/>
    <vehicle id="SaturnArena15.152" depart="57540.00" departLane="4" departPos="2.97" departSpeed="12.49" route="354967545#0.45_to_141058765#1"/>
    <vehicle id="SaturnArena15.153" depart="57660.00" departLane="4" departPos="2.97" departSpeed="13.44" route="354967545#0.45_to_141058765#1"/>
    <vehicle id="SaturnArena15.154" depart="58560.00" departLane="4" departPos="2.97" departSpeed="13.50" route="354967545#0.45_to_141058765#1"/>
    <vehicle id="SaturnArena15.155" depart="58680.00" departLane="4" departPos="2.97" departSpeed="15.11" route="354967545#0.45_to_141058765#1"/>
    <vehicle id="SaturnArena15.156" depart="58800.00" departLane="4" departPos="2.97" departSpeed="14.21" route="354967545#0.45_to_141058765#1"/>
    <vehicle id="SaturnArena15.157" depart="58860.00" departLane="4" departPos="2.97" departSpeed="15.28" route="354967545#0.45_to_141058765#1"/>
    <vehicle id="SaturnArena15.158" depart="58920.00" departLane="4" departPos="2.97" departSpeed="16.89" route="354967545#0.45_to_141058765#1"/>
    <vehicle id="SaturnArena15.159" depart="58980.00" departLane="4" departPos="2.97" departSpeed="15.08" route="354967545#0.45_to_141058765#1"/>
    <vehicle id="SaturnArena15.160" depart="59040.00" departLane="4" departPos="2.97" departSpeed="14.10" route="354967545#0.45_to_141058765#1"/>
    <vehicle id="SaturnArena15.161" depart="59160.00" departLane="4" departPos="2.97" departSpeed="12.09" route="354967545#0.45_to_141058765#1"/>
    <vehicle id="SaturnArena15.162" depart="59175.00" departLane="4" departPos="2.97" departSpeed="12.09" route="354967545#0.45_to_141058765#1"/>
    <vehicle id="SaturnArena15.163" depart="59190.00" departLane="4" departPos="2.97" departSpeed="12.09" route="354967545#0.45_to_-25188983#0"/>
    <vehicle id="SaturnArena15.164" depart="59205.00" departLane="4" departPos="2.97" departSpeed="12.09" route="354967545#0.45_to_141058765#1"/>
    <vehicle id="SaturnArena15.165" depart="59280.00" departLane="4" departPos="2.97" departSpeed="12.99" route="354967545#0.45_to_-266887590#0"/>
    <vehicle id="SaturnArena15.166" depart="59460.00" departLane="4" departPos="2.97" departSpeed="12.26" route="354967545#0.45_to_141058765#1"/>
    <vehicle id="SaturnArena15.167" depart="59490.00" departLane="4" departPos="2.97" departSpeed="12.26" route="354967545#0.45_to_-266887590#0"/>
    <vehicle id="SaturnArena15.168" depart="59520.00" departLane="4" departPos="2.97" departSpeed="12.22" route="354967545#0.45_to_141058765#1"/>
    <vehicle id="SaturnArena15.169" depart="59550.00" departLane="4" departPos="2.97" departSpeed="12.22" route="354967545#0.45_to_141058765#1"/>
    <vehicle id="SaturnArena15.170" depart="59640.00" departLane="4" departPos="2.97" departSpeed="15.60" route="354967545#0.45_to_141058765#1"/>
    <vehicle id="SaturnArena15.171" depart="59700.00" departLane="4" departPos="2.97" departSpeed="13.05" route="354967545#0.45_to_141058765#1"/>
    <vehicle id="SaturnArena15.172" depart="59720.00" departLane="4" departPos="2.97" departSpeed="13.05" route="354967545#0.45_to_141058765#1"/>
    <vehicle id="SaturnArena15.173" depart="59740.00" departLane="4" departPos="2.97" departSpeed="13.05" route="354967545#0.45_to_141058765#1"/>
    <vehicle id="SaturnArena15.174" depart="59760.00" departLane="4" departPos="2.97" departSpeed="14.13" route="354967545#0.45_to_-25188983#0"/>
    <vehicle id="SaturnArena15.175" depart="59880.00" departLane="4" departPos="2.97" departSpeed="16.58" route="354967545#0.45_to_141058765#1"/>
    <vehicle id="SaturnArena15.176" depart="59910.00" departLane="4" departPos="2.97" departSpeed="16.58" route="354967545#0.45_to_141058765#1"/>
    <vehicle id="SaturnArena15.177" depart="60660.00" departLane="4" departPos="2.97" departSpeed="12.34" route="354967545#0.45_to_141058765#1"/>
    <vehicle id="SaturnArena15.178" depart="60690.00" departLane="4" departPos="2.97" departSpeed="12.34" route="354967545#0.45_to_-266887590#0"/>
    <vehicle id="SaturnArena15.179" depart="60780.00" departLane="4" departPos="2.97" departSpeed="14.42" route="354967545#0.45_to_141058765#1"/>
    <vehicle id="SaturnArena15.180" depart="60810.00" departLane="4" departPos="2.97" departSpeed="14.42" route="354967545#0.45_to_141058765#1"/>
    <vehicle id="SaturnArena15.181" depart="60840.00" departLane="4" departPos="2.97" departSpeed="13.47" route="354967545#0.45_to_141058765#1"/>
    <vehicle id="SaturnArena15.182" depart="61140.00" departLane="4" departPos="2.97" departSpeed="13.62" route="354967545#0.45_to_141058765#1"/>
    <vehicle id="SaturnArena15.183" depart="61200.00" departLane="4" departPos="2.97" departSpeed="14.84" route="354967545#0.45_to_141058765#1"/>
    <vehicle id="SaturnArena15.184" depart="61230.00" departLane="4" departPos="2.97" departSpeed="14.84" route="354967545#0.45_to_-266887590#0"/>
    <vehicle id="SaturnArena15.185" depart="61380.00" departLane="4" departPos="2.97" departSpeed="15.08" route="354967545#0.45_to_-266887590#0"/>
    <vehicle id="SaturnArena15.186" depart="61620.00" departLane="4" departPos="2.97" departSpeed="14.21" route="354967545#0.45_to_141058765#1"/>
    <vehicle id="SaturnArena15.187" depart="61635.00" departLane="4" departPos="2.97" departSpeed="14.21" route="354967545#0.45_to_141058765#1"/>
    <vehicle id="SaturnArena15.188" depart="61650.00" departLane="4" departPos="2.97" departSpeed="14.21" route="354967545#0.45_to_141058765#1"/>
    <vehicle id="SaturnArena15.189" depart="61665.00" departLane="4" departPos="2.97" departSpeed="14.21" route="354967545#0.45_to_141058765#1"/>
    <vehicle id="SaturnArena15.190" depart="61680.00" departLane="4" departPos="2.97" departSpeed="20.17" route="354967545#0.45_to_141058765#1"/>
    <vehicle id="SaturnArena15.191" depart="61700.00" departLane="4" departPos="2.97" departSpeed="20.17" route="354967545#0.45_to_-266887590#0"/>
    <vehicle id="SaturnArena15.192" depart="61720.00" departLane="4" departPos="2.97" departSpeed="20.17" route="354967545#0.45_to_141058765#1"/>
    <vehicle id="SaturnArena15.193" depart="61800.00" departLane="4" departPos="2.97" departSpeed="12.65" route="354967545#0.45_to_-266887590#0"/>
    <vehicle id="SaturnArena15.194" depart="61830.00" departLane="4" departPos="2.97" departSpeed="12.65" route="354967545#0.45_to_141058765#1"/>
    <vehicle id="SaturnArena15.195" depart="61920.00" departLane="4" departPos="2.97" departSpeed="21.23" route="354967545#0.45_to_141058765#1"/>
    <vehicle id="SaturnArena15.196" depart="61940.00" departLane="4" departPos="2.97" departSpeed="21.23" route="354967545#0.45_to_141058765#1"/>