<?xml version="1.0" encoding="UTF-8"?>

<!-- generated on 2021-11-23 13:12:00 by Eclipse SUMO GUI Version 1.10.0
<configuration xmlns:xsi="http://www.w3.org/2001/XMLSchema-instance" xsi:noNamespaceSchemaLocation="http://sumo.dlr.de/xsd/sumoConfiguration.xsd">

    <input>
        <net-file value="InTAS_Crossing.net.xml"/>
        <additional-files value="InTAS_Crossing_Pedestrians.rou.xml,InTAS_Vehicles.rou.alt.xml,SaturnArena_flow.add.xml,buildings.poly.xml"/>
    </input>

    <output>
        <summary-output value="InTAS_Crossing.simulation.summary.xml"/>
        <tripinfo-output value="InTAS_Crossing.simulation.tripinfo.xml"/>
        <statistic-output value="InTAS_Crossing.simulation.statistic.xml"/>
    </output>

    <time>
        <begin value="0"/>
        <end value="3600"/>
        <step-length value="1"/>
    </time>

    <processing>
        <threads value="1"/>
        <route-steps value="200"/>
        <ignore-junction-blocker value="15"/>
        <time-to-teleport value="300"/>
        <time-to-teleport.highways value="300"/>
        <max-depart-delay value="300"/>
        <default.carfollowmodel value="Krauss"/>
        <parking.maneuver value="true"/>
        <pedestrian.model value="striping"/>
        <pedestrian.striping.stripe-width value="0.55"/>
        <pedestrian.striping.jamtime value="30"/>
    </processing>

    <routing>
        <routing-algorithm value="dijkstra"/>
        <persontrip.transfer.car-walk value="allJunctions"/>
        <device.rerouting.probability value="0.82"/>
        <device.rerouting.period value="300"/>
        <device.rerouting.threads value="1"/>
        <device.rerouting.synchronize value="true"/>
    </routing>

    <report>
        <verbose value="true"/>
        <no-warnings value="true"/>
        <log value="InTAS.simulation.log"/>
    </report>

    <gui_only>
        <tracker-interval value="1"/>
    </gui_only>

</configuration>
-->

<tripinfos xmlns:xsi="http://www.w3.org/2001/XMLSchema-instance" xsi:noNamespaceSchemaLocation="http://sumo.dlr.de/xsd/tripinfo_file.xsd">
    <tripinfo id="3" depart="3.00" departLane="354967545#0.45_1" departPos="5.10" departSpeed="0.00" departDelay="0.60" arrival="14.00" arrivalLane="-25188983#0_1" arrivalPos="40.13" arrivalSpeed="12.59" duration="11.00" routeLength="91.49" waitingTime="0.00" waitingCount="0" stopTime="0.00" timeLoss="3.49" rerouteNo="0" devices="tripinfo_3 routing_3" vType="DEFAULT_VEHTYPE" speedFactor="0.98" vaporized=""/>
    <tripinfo id="9" depart="8.00" departLane="354967545#0.45_1" departPos="5.10" departSpeed="0.00" departDelay="0.80" arrival="21.00" arrivalLane="-25188983#0_1" arrivalPos="40.13" arrivalSpeed="11.34" duration="13.00" routeLength="91.49" waitingTime="0.00" waitingCount="0" stopTime="0.00" timeLoss="4.15" rerouteNo="0" devices="tripinfo_9 routing_9" vType="DEFAULT_VEHTYPE" speedFactor="0.88" vaporized=""/>
    <tripinfo id="0" depart="0.00" departLane="354967544#1.11_1" departPos="5.10" departSpeed="0.00" departDelay="0.00" arrival="23.00" arrivalLane="-25188983#0_1" arrivalPos="40.13" arrivalSpeed="11.48" duration="23.00" routeLength="98.51" waitingTime="7.00" waitingCount="1" stopTime="0.00" timeLoss="14.66" rerouteNo="0" devices="tripinfo_0" vType="DEFAULT_VEHTYPE" speedFactor="0.92" vaporized=""/>
    <personinfo id="10" depart="8.00" type="DEFAULT_PEDTYPE">
        <walk depart="8.00" departPos="0.00" arrival="24.00" arrivalPos="20.07" duration="16.00" routeLength="20.07" timeLoss="2.75" maxSpeed="1.51"/>
    </personinfo>
    <tripinfo id="12" depart="14.00" departLane="354967545#0.45_1" departPos="5.10" departSpeed="0.00" departDelay="4.40" arrival="27.00" arrivalLane="-266887590#0_1" arrivalPos="65.19" arrivalSpeed="14.32" duration="13.00" routeLength="135.87" waitingTime="0.00" waitingCount="0" stopTime="0.00" timeLoss="3.07" rerouteNo="0" devices="tripinfo_12 routing_12" vType="DEFAULT_VEHTYPE" speedFactor="1.03" vaporized=""/>
    <tripinfo id="20" depart="16.00" departLane="354967544#1.11_1" departPos="5.10" departSpeed="0.00" departDelay="0.00" arrival="27.00" arrivalLane="-25188983#0_1" arrivalPos="40.13" arrivalSpeed="13.46" duration="11.00" routeLength="98.51" waitingTime="0.00" waitingCount="0" stopTime="0.00" timeLoss="3.20" rerouteNo="0" devices="tripinfo_20 routing_20" vType="DEFAULT_VEHTYPE" speedFactor="0.99" vaporized=""/>
    <personinfo id="6" depart="4.80" type="DEFAULT_PEDTYPE">
        <walk depart="5.00" departPos="0.00" arrival="28.00" arrivalPos="15.61" duration="23.00" routeLength="27.94" timeLoss="3.76" maxSpeed="1.45"/>
    </personinfo>
    <personinfo id="1" depart="0.80" type="DEFAULT_PEDTYPE">
        <walk depart="1.00" departPos="0.00" arrival="30.00" arrivalPos="20.70" duration="29.00" routeLength="31.15" timeLoss="5.10" maxSpeed="1.30"/>
    </personinfo>
    <personinfo id="0" depart="0.00" type="DEFAULT_PEDTYPE">
        <walk depart="0.00" departPos="0.00" arrival="32.00" arrivalPos="14.24" duration="32.00" routeLength="40.49" timeLoss="4.50" maxSpeed="1.47"/>
    </personinfo>
    <personinfo id="15" depart="12.00" type="DEFAULT_PEDTYPE">
        <walk depart="12.00" departPos="0.00" arrival="33.00" arrivalPos="23.34" duration="21.00" routeLength="23.34" timeLoss="2.87" maxSpeed="1.29"/>
    </personinfo>
    <personinfo id="12" depart="9.60" type="DEFAULT_PEDTYPE">
        <walk depart="10.00" departPos="0.00" arrival="35.00" arrivalPos="32.59" duration="25.00" routeLength="32.59" timeLoss="2.59" maxSpeed="1.45"/>
    </personinfo>
    <tripinfo id="26" depart="21.00" departLane="266887590#0_1" departPos="5.10" departSpeed="0.00" departDelay="0.20" arrival="35.00" arrivalLane="4268816#1_1" arrivalPos="46.69" arrivalSpeed="13.84" duration="14.00" routeLength="120.86" waitingTime="0.00" waitingCount="0" stopTime="0.00" timeLoss="5.26" rerouteNo="0" devices="tripinfo_26 routing_26" vType="DEFAULT_VEHTYPE" speedFactor="1.09" vaporized=""/>
    <tripinfo id="1" depart="1.00" departLane="266887590#0_1" departPos="5.10" departSpeed="0.00" departDelay="0.20" arrival="37.00" arrivalLane="-25188983#0_1" arrivalPos="40.13" arrivalSpeed="9.97" duration="36.00" routeLength="132.62" waitingTime="14.00" waitingCount="1" stopTime="0.00" timeLoss="22.05" rerouteNo="0" devices="tripinfo_1 routing_1" vType="DEFAULT_VEHTYPE" speedFactor="0.72" vaporized=""/>
    <tripinfo id="21" depart="17.00" departLane="25188983#0_1" departPos="5.10" departSpeed="0.00" departDelay="0.20" arrival="37.00" arrivalLane="-266887590#0_1" arrivalPos="65.19" arrivalSpeed="13.81" duration="20.00" routeLength="132.62" waitingTime="1.00" waitingCount="1" stopTime="0.00" timeLoss="10.31" rerouteNo="0" devices="tripinfo_21" vType="DEFAULT_VEHTYPE" speedFactor="1.05" vaporized=""/>
    <tripinfo id="4" depart="4.00" departLane="266887590#0_1" departPos="5.10" departSpeed="0.00" departDelay="0.80" arrival="39.00" arrivalLane="-25188983#0_1" arrivalPos="40.13" arrivalSpeed="13.20" duration="35.00" routeLength="132.62" waitingTime="11.00" waitingCount="1" stopTime="0.00" timeLoss="24.88" rerouteNo="0" devices="tripinfo_4 routing_4" vType="DEFAULT_VEHTYPE" speedFactor="1.03" vaporized=""/>
    <tripinfo id="5" depart="4.00" departLane="25188983#0_1" departPos="5.10" departSpeed="0.00" departDelay="0.00" arrival="40.00" arrivalLane="141058765#1_1" arrivalPos="28.48" arrivalSpeed="10.54" duration="36.00" routeLength="77.78" waitingTime="19.00" waitingCount="2" stopTime="0.00" timeLoss="29.55" rerouteNo="0" devices="tripinfo_5 routing_5" vType="DEFAULT_VEHTYPE" speedFactor="1.02" vaporized=""/>
    <tripinfo id="23" depart="19.00" departLane="25188983#0_1" departPos="5.10" departSpeed="0.00" departDelay="0.60" arrival="40.00" arrivalLane="-266887590#0_1" arrivalPos="65.19" arrivalSpeed="11.33" duration="21.00" routeLength="132.62" waitingTime="0.00" waitingCount="0" stopTime="0.00" timeLoss="9.36" rerouteNo="0" devices="tripinfo_23 routing_23" vType="DEFAULT_VEHTYPE" speedFactor="0.84" vaporized=""/>
    <tripinfo id="11" depart="9.00" departLane="266887590#0_1" departPos="5.10" departSpeed="0.00" departDelay="0.20" arrival="41.00" arrivalLane="-25188983#0_1" arrivalPos="40.13" arrivalSpeed="12.44" duration="32.00" routeLength="132.62" waitingTime="10.00" waitingCount="1" stopTime="0.00" timeLoss="20.84" rerouteNo="0" devices="tripinfo_11 routing_11" vType="DEFAULT_VEHTYPE" speedFactor="0.93" vaporized=""/>
    <tripinfo id="25" depart="20.00" departLane="266887590#0_1" departPos="5.10" departSpeed="0.00" departDelay="0.00" arrival="42.00" arrivalLane="-25188983#0_1" arrivalPos="40.13" arrivalSpeed="13.37" duration="22.00" routeLength="132.62" waitingTime="2.00" waitingCount="1" stopTime="0.00" timeLoss="13.08" rerouteNo="0" devices="tripinfo_25 routing_25" vType="DEFAULT_VEHTYPE" speedFactor="1.10" vaporized=""/>
    <tripinfo id="29" depart="26.00" departLane="25188983#0_1" departPos="5.10" departSpeed="0.00" departDelay="2.80" arrival="42.00" arrivalLane="-266887590#0_1" arrivalPos="65.19" arrivalSpeed="12.15" duration="16.00" routeLength="132.62" waitingTime="0.00" waitingCount="0" stopTime="0.00" timeLoss="4.66" rerouteNo="0" devices="tripinfo_29 routing_29" vType="DEFAULT_VEHTYPE" speedFactor="0.88" vaporized=""/>
    <personinfo id="7" depart="5.60" type="DEFAULT_PEDTYPE">
        <walk depart="6.00" departPos="0.00" arrival="45.00" arrivalPos="32.59" duration="39.00" routeLength="41.30" timeLoss="5.44" maxSpeed="1.23"/>
    </personinfo>
    <personinfo id="8" depart="6.40" type="DEFAULT_PEDTYPE">
        <walk depart="7.00" departPos="0.00" arrival="46.00" arrivalPos="32.59" duration="39.00" routeLength="41.30" timeLoss="7.30" maxSpeed="1.30"/>
    </personinfo>
    <personinfo id="3" depart="2.40" type="DEFAULT_PEDTYPE">
        <walk depart="3.00" departPos="0.00" arrival="48.00" arrivalPos="32.59" duration="45.00" routeLength="57.99" timeLoss="6.44" maxSpeed="1.50"/>
    </personinfo>
    <tripinfo id="17" depart="14.00" departLane="266887590#0_1" departPos="5.10" departSpeed="0.00" departDelay="0.40" arrival="53.00" arrivalLane="141058765#1_2" arrivalPos="28.48" arrivalSpeed="12.74" duration="39.00" routeLength="120.55" waitingTime="14.00" waitingCount="3" stopTime="0.00" timeLoss="28.61" rerouteNo="0" devices="tripinfo_17 routing_17" vType="DEFAULT_VEHTYPE" speedFactor="0.94" vaporized=""/>
    <tripinfo id="8" depart="7.00" departLane="25188983#0_1" departPos="5.10" departSpeed="0.00" departDelay="0.60" arrival="54.00" arrivalLane="141058765#1_1" arrivalPos="28.48" arrivalSpeed="11.95" duration="47.00" routeLength="77.78" waitingTime="26.00" waitingCount="3" stopTime="0.00" timeLoss="39.32" rerouteNo="0" devices="tripinfo_8 routing_8" vType="DEFAULT_VEHTYPE" speedFactor="0.93" vaporized=""/>
    <tripinfo id="14" depart="15.00" departLane="354967545#0.45_1" departPos="5.10" departSpeed="0.00" departDelay="3.80" arrival="57.00" arrivalLane="141058765#1_1" arrivalPos="28.48" arrivalSpeed="13.12" duration="42.00" routeLength="100.75" waitingTime="25.00" waitingCount="1" stopTime="0.00" timeLoss="34.47" rerouteNo="0" devices="tripinfo_14 routing_14" vType="DEFAULT_VEHTYPE" speedFactor="0.97" vaporized=""/>
    <tripinfo id="35" depart="28.00" departLane="25188983#0_1" departPos="5.10" departSpeed="0.00" departDelay="0.00" arrival="57.00" arrivalLane="4268816#1_1" arrivalPos="46.69" arrivalSpeed="12.79" duration="29.00" routeLength="114.25" waitingTime="6.00" waitingCount="1" stopTime="0.00" timeLoss="19.96" rerouteNo="0" devices="tripinfo_35" vType="DEFAULT_VEHTYPE" speedFactor="0.98" vaporized=""/>
    <personinfo id="42" depart="33.60" type="DEFAULT_PEDTYPE">
        <walk depart="34.00" departPos="0.00" arrival="58.00" arrivalPos="32.59" duration="24.00" routeLength="32.59" timeLoss="2.51" maxSpeed="1.52"/>
    </personinfo>
    <personinfo id="57" depart="45.60" type="DEFAULT_PEDTYPE">
        <walk depart="46.00" departPos="0.00" arrival="58.00" arrivalPos="15.61" duration="12.00" routeLength="15.61" timeLoss="2.16" maxSpeed="1.59"/>
    </personinfo>
    <tripinfo id="41" depart="36.00" departLane="354967544#1.11_1" departPos="5.10" departSpeed="0.00" departDelay="3.20" arrival="58.00" arrivalLane="4268816#1_2" arrivalPos="46.69" arrivalSpeed="14.75" duration="22.00" routeLength="109.17" waitingTime="4.00" waitingCount="1" stopTime="0.00" timeLoss="15.10" rerouteNo="0" devices="tripinfo_41 routing_41" vType="DEFAULT_VEHTYPE" speedFactor="1.14" vaporized=""/>
    <tripinfo id="16" depart="13.00" departLane="354967544#1.11_1" departPos="5.10" departSpeed="0.00" departDelay="0.20" arrival="59.00" arrivalLane="4268816#1_1" arrivalPos="46.69" arrivalSpeed="14.14" duration="46.00" routeLength="109.17" waitingTime="29.00" waitingCount="1" stopTime="0.00" timeLoss="37.80" rerouteNo="0" devices="tripinfo_16 routing_16" vType="DEFAULT_VEHTYPE" speedFactor="1.02" vaporized=""/>
    <tripinfo id="18" depart="21.00" departLane="354967545#0.45_1" departPos="5.10" departSpeed="0.00" departDelay="6.60" arrival="59.00" arrivalLane="141058765#1_2" arrivalPos="28.48" arrivalSpeed="13.41" duration="38.00" routeLength="100.75" waitingTime="19.00" waitingCount="1" stopTime="0.00" timeLoss="30.59" rerouteNo="0" devices="tripinfo_18 routing_18" vType="DEFAULT_VEHTYPE" speedFactor="1.02" vaporized=""/>
    <personinfo id="61" depart="48.80" type="DEFAULT_PEDTYPE">
        <walk depart="49.00" departPos="0.00" arrival="60.00" arrivalPos="14.24" duration="11.00" routeLength="14.24" timeLoss="1.84" maxSpeed="1.55"/>
    </personinfo>
    <personinfo id="30" depart="24.00" type="DEFAULT_PEDTYPE">
        <walk depart="24.00" departPos="0.00" arrival="60.00" arrivalPos="32.59" duration="36.00" routeLength="50.60" timeLoss="5.09" maxSpeed="1.64"/>
    </personinfo>
    <tripinfo id="10" depart="11.00" departLane="354967545#0.45_1" departPos="5.10" departSpeed="0.00" departDelay="3.00" arrival="60.00" arrivalLane="141058765#1_1" arrivalPos="28.48" arrivalSpeed="12.70" duration="49.00" routeLength="100.75" waitingTime="29.00" waitingCount="1" stopTime="0.00" timeLoss="40.70" rerouteNo="0" devices="tripinfo_10 routing_10" vType="DEFAULT_VEHTYPE" speedFactor="0.96" vaporized=""/>
    <personinfo id="4" depart="3.20" type="DEFAULT_PEDTYPE">
        <walk depart="4.00" departPos="0.00" arrival="61.00" arrivalPos="14.24" duration="57.00" routeLength="69.94" timeLoss="8.12" maxSpeed="1.43"/>
    </personinfo>
    <tripinfo id="15" depart="18.00" departLane="354967545#0.45_1" departPos="5.10" departSpeed="0.00" departDelay="6.00" arrival="61.00" arrivalLane="141058765#1_1" arrivalPos="28.48" arrivalSpeed="14.76" duration="43.00" routeLength="100.75" waitingTime="25.00" waitingCount="1" stopTime="0.00" timeLoss="36.25" rerouteNo="0" devices="tripinfo_15 routing_15" vType="DEFAULT_VEHTYPE" speedFactor="1.10" vaporized=""/>
    <tripinfo id="19" depart="24.00" departLane="354967545#0.45_1" departPos="5.10" departSpeed="0.00" departDelay="8.80" arrival="61.00" arrivalLane="141058765#1_2" arrivalPos="28.48" arrivalSpeed="12.40" duration="37.00" routeLength="100.75" waitingTime="19.00" waitingCount="1" stopTime="0.00" timeLoss="29.24" rerouteNo="0" devices="tripinfo_19 routing_19" vType="DEFAULT_VEHTYPE" speedFactor="0.96" vaporized=""/>
    <personinfo id="51" depart="40.80" type="DEFAULT_PEDTYPE">
        <walk depart="41.00" departPos="0.00" arrival="63.00" arrivalPos="15.61" duration="22.00" routeLength="27.94" timeLoss="4.79" maxSpeed="1.62"/>
    </personinfo>
    <tripinfo id="30" depart="25.00" departLane="354967545#0.45_1" departPos="5.10" departSpeed="0.00" departDelay="1.00" arrival="63.00" arrivalLane="141058765#1_1" arrivalPos="28.48" arrivalSpeed="12.50" duration="38.00" routeLength="100.75" waitingTime="18.00" waitingCount="1" stopTime="0.00" timeLoss="30.56" rerouteNo="0" devices="tripinfo_30" vType="DEFAULT_VEHTYPE" speedFactor="0.99" vaporized=""/>
    <tripinfo id="48" depart="39.00" departLane="354967545#0.45_1" departPos="5.10" departSpeed="0.00" departDelay="0.60" arrival="63.00" arrivalLane="141058765#1_2" arrivalPos="28.48" arrivalSpeed="16.46" duration="24.00" routeLength="100.75" waitingTime="9.00" waitingCount="1" stopTime="0.00" timeLoss="17.58" rerouteNo="0" devices="tripinfo_48 routing_48" vType="DEFAULT_VEHTYPE" speedFactor="1.19" vaporized=""/>
    <personinfo id="2" depart="1.60" type="DEFAULT_PEDTYPE">
        <walk depart="2.00" departPos="0.00" arrival="64.00" arrivalPos="23.34" duration="62.00" routeLength="51.97" timeLoss="24.97" maxSpeed="1.40"/>
    </personinfo>
    <tripinfo id="60" depart="48.00" departLane="354967545#0.45_1" departPos="5.10" departSpeed="0.00" departDelay="0.00" arrival="65.00" arrivalLane="141058765#1_2" arrivalPos="28.48" arrivalSpeed="15.15" duration="17.00" routeLength="100.75" waitingTime="2.00" waitingCount="1" stopTime="0.00" timeLoss="10.06" rerouteNo="0" devices="tripinfo_60 routing_60" vType="DEFAULT_VEHTYPE" speedFactor="1.14" vaporized=""/>
    <tripinfo id="43" depart="35.00" departLane="354967545#0.45_1" departPos="5.10" departSpeed="0.00" departDelay="0.60" arrival="66.00" arrivalLane="141058765#1_1" arrivalPos="28.48" arrivalSpeed="12.01" duration="31.00" routeLength="100.75" waitingTime="11.00" waitingCount="1" stopTime="0.00" timeLoss="21.94" rerouteNo="0" devices="tripinfo_43 routing_43" vType="DEFAULT_VEHTYPE" speedFactor="0.88" vaporized=""/>
    <personinfo id="26" depart="20.80" type="DEFAULT_PEDTYPE">
        <walk depart="21.00" departPos="0.00" arrival="67.00" arrivalPos="32.59" duration="46.00" routeLength="50.60" timeLoss="6.28" maxSpeed="1.27"/>
    </personinfo>
    <tripinfo id="61" depart="54.00" departLane="354967545#0.45_1" departPos="5.10" departSpeed="0.00" departDelay="5.20" arrival="67.00" arrivalLane="141058765#1_1" arrivalPos="28.48" arrivalSpeed="12.15" duration="13.00" routeLength="100.75" waitingTime="0.00" waitingCount="0" stopTime="0.00" timeLoss="4.80" rerouteNo="0" devices="tripinfo_61 routing_61" vType="DEFAULT_VEHTYPE" speedFactor="0.88" vaporized=""/>
    <personinfo id="47" depart="37.60" type="DEFAULT_PEDTYPE">
        <walk depart="38.00" departPos="0.00" arrival="68.00" arrivalPos="20.70" duration="30.00" routeLength="31.15" timeLoss="5.09" maxSpeed="1.25"/>
    </personinfo>
    <tripinfo id="69" depart="57.00" departLane="354967545#0.45_1" departPos="5.10" departSpeed="0.00" departDelay="1.80" arrival="70.00" arrivalLane="-25188983#0_1" arrivalPos="40.13" arrivalSpeed="13.69" duration="13.00" routeLength="91.49" waitingTime="0.00" waitingCount="0" stopTime="0.00" timeLoss="5.23" rerouteNo="0" devices="tripinfo_69" vType="DEFAULT_VEHTYPE" speedFactor="0.99" vaporized=""/>
    <personinfo id="74" depart="59.20" type="DEFAULT_PEDTYPE">
        <walk depart="60.00" departPos="0.00" arrival="72.00" arrivalPos="14.24" duration="12.00" routeLength="14.24" timeLoss="1.27" maxSpeed="1.33"/>
    </personinfo>
    <personinfo id="53" depart="42.40" type="DEFAULT_PEDTYPE">
        <walk depart="43.00" departPos="0.00" arrival="72.00" arrivalPos="20.07" duration="29.00" routeLength="38.07" timeLoss="3.99" maxSpeed="1.52"/>
    </personinfo>
    <tripinfo id="75" depart="61.00" departLane="354967545#0.45_1" departPos="5.10" departSpeed="0.00" departDelay="1.00" arrival="72.00" arrivalLane="141058765#1_1" arrivalPos="28.48" arrivalSpeed="12.46" duration="11.00" routeLength="100.75" waitingTime="0.00" waitingCount="0" stopTime="0.00" timeLoss="3.12" rerouteNo="0" devices="tripinfo_75 routing_75" vType="DEFAULT_VEHTYPE" speedFactor="0.93" vaporized=""/>
    <personinfo id="56" depart="44.80" type="DEFAULT_PEDTYPE">
        <walk depart="45.00" departPos="0.00" arrival="74.00" arrivalPos="32.59" duration="29.00" routeLength="32.59" timeLoss="2.89" maxSpeed="1.25"/>
    </personinfo>
    <personinfo id="77" depart="61.60" type="DEFAULT_PEDTYPE">
        <walk depart="62.00" departPos="0.00" arrival="75.00" arrivalPos="15.61" duration="13.00" routeLength="15.61" timeLoss="1.55" maxSpeed="1.36"/>
    </personinfo>
    <personinfo id="75" depart="60.00" type="DEFAULT_PEDTYPE">
        <walk depart="60.00" departPos="0.00" arrival="77.00" arrivalPos="20.07" duration="17.00" routeLength="20.07" timeLoss="2.33" maxSpeed="1.37"/>
    </personinfo>
    <tripinfo id="82" depart="66.00" departLane="354967545#0.45_1" departPos="5.10" departSpeed="0.00" departDelay="0.40" arrival="78.00" arrivalLane="-25188983#0_1" arrivalPos="40.13" arrivalSpeed="14.45" duration="12.00" routeLength="91.49" waitingTime="0.00" waitingCount="0" stopTime="0.00" timeLoss="4.89" rerouteNo="0" devices="tripinfo_82 routing_82" vType="DEFAULT_VEHTYPE" speedFactor="1.10" vaporized=""/>
    <personinfo id="82" depart="65.60" type="DEFAULT_PEDTYPE">
        <walk depart="66.00" departPos="0.00" arrival="79.00" arrivalPos="15.61" duration="13.00" routeLength="15.61" timeLoss="1.95" maxSpeed="1.41"/>
    </personinfo>
    <tripinfo id="24" depart="20.00" departLane="354967544#1.11_1" departPos="5.10" departSpeed="0.00" departDelay="0.80" arrival="79.00" arrivalLane="-266887590#0_1" arrivalPos="65.19" arrivalSpeed="12.96" duration="59.00" routeLength="108.59" waitingTime="40.00" waitingCount="2" stopTime="0.00" timeLoss="49.64" rerouteNo="0" devices="tripinfo_24 routing_24" vType="DEFAULT_VEHTYPE" speedFactor="1.01" vaporized=""/>
    <tripinfo id="38" depart="31.00" departLane="354967545#0.45_1" departPos="5.10" departSpeed="0.00" departDelay="0.60" arrival="79.00" arrivalLane="-266887590#0_2" arrivalPos="65.19" arrivalSpeed="13.65" duration="48.00" routeLength="130.66" waitingTime="18.00" waitingCount="3" stopTime="0.00" timeLoss="38.17" rerouteNo="0" devices="tripinfo_38 routing_38" vType="DEFAULT_VEHTYPE" speedFactor="1.05" vaporized=""/>
    <tripinfo id="56" depart="45.00" departLane="354967544#1.11_1" departPos="5.10" departSpeed="0.00" departDelay="0.20" arrival="80.00" arrivalLane="-25188983#0_1" arrivalPos="40.13" arrivalSpeed="13.43" duration="35.00" routeLength="98.51" waitingTime="18.00" waitingCount="1" stopTime="0.00" timeLoss="27.23" rerouteNo="0" devices="tripinfo_56 routing_56" vType="DEFAULT_VEHTYPE" speedFactor="0.99" vaporized=""/>
    <personinfo id="67" depart="53.60" type="DEFAULT_PEDTYPE">
        <walk depart="54.00" departPos="0.00" arrival="81.00" arrivalPos="15.61" duration="27.00" routeLength="27.94" timeLoss="5.00" maxSpeed="1.27"/>
    </personinfo>
    <tripinfo id="37" depart="30.00" departLane="354967544#1.11_1" departPos="5.10" departSpeed="0.00" departDelay="0.40" arrival="81.00" arrivalLane="-266887590#0_1" arrivalPos="65.19" arrivalSpeed="13.37" duration="51.00" routeLength="108.59" waitingTime="32.00" waitingCount="2" stopTime="0.00" timeLoss="41.63" rerouteNo="0" devices="tripinfo_37 routing_37" vType="DEFAULT_VEHTYPE" speedFactor="0.97" vaporized=""/>
    <tripinfo id="55" depart="44.00" departLane="354967545#0.45_1" departPos="5.10" departSpeed="0.00" departDelay="0.00" arrival="81.00" arrivalLane="-266887590#0_2" arrivalPos="65.19" arrivalSpeed="12.56" duration="37.00" routeLength="130.66" waitingTime="10.00" waitingCount="2" stopTime="0.00" timeLoss="26.29" rerouteNo="0" devices="tripinfo_55 routing_55" vType="DEFAULT_VEHTYPE" speedFactor="0.96" vaporized=""/>
    <personinfo id="24" depart="19.20" type="DEFAULT_PEDTYPE">
        <walk depart="20.00" departPos="0.00" arrival="83.00" arrivalPos="14.24" duration="63.00" routeLength="63.31" timeLoss="7.79" maxSpeed="1.15"/>
    </personinfo>
    <tripinfo id="59" depart="48.00" departLane="354967544#1.11_1" departPos="5.10" departSpeed="0.00" departDelay="0.80" arrival="83.00" arrivalLane="-25188983#0_1" arrivalPos="40.13" arrivalSpeed="10.14" duration="35.00" routeLength="98.51" waitingTime="18.00" waitingCount="1" stopTime="0.00" timeLoss="24.55" rerouteNo="0" devices="tripinfo_59 routing_59" vType="DEFAULT_VEHTYPE" speedFactor="0.75" vaporized=""/>
    <personinfo id="22" depart="17.60" type="DEFAULT_PEDTYPE">
        <walk depart="18.00" departPos="0.00" arrival="84.00" arrivalPos="20.07" duration="66.00" routeLength="55.67" timeLoss="24.89" maxSpeed="1.35"/>
    </personinfo>
    <tripinfo id="36" depart="29.00" departLane="354967545#0.45_1" departPos="5.10" departSpeed="0.00" departDelay="0.20" arrival="84.00" arrivalLane="-266887590#0_1" arrivalPos="65.19" arrivalSpeed="15.31" duration="55.00" routeLength="135.87" waitingTime="31.00" waitingCount="3" stopTime="0.00" timeLoss="45.01" rerouteNo="0" devices="tripinfo_36" vType="DEFAULT_VEHTYPE" speedFactor="1.11" vaporized=""/>
    <personinfo id="14" depart="11.20" type="DEFAULT_PEDTYPE">
        <walk depart="12.00" departPos="0.00" arrival="86.00" arrivalPos="14.24" duration="74.00" routeLength="56.60" timeLoss="32.88" maxSpeed="1.38"/>
    </personinfo>
    <personinfo id="11" depart="8.80" type="DEFAULT_PEDTYPE">
        <walk depart="9.00" departPos="0.00" arrival="86.00" arrivalPos="15.61" duration="77.00" routeLength="52.23" timeLoss="40.36" maxSpeed="1.43"/>
    </personinfo>
    <tripinfo id="46" depart="38.00" departLane="354967545#0.45_1" departPos="5.10" departSpeed="0.00" departDelay="1.20" arrival="86.00" arrivalLane="-266887590#0_1" arrivalPos="65.19" arrivalSpeed="13.16" duration="48.00" routeLength="135.87" waitingTime="20.00" waitingCount="2" stopTime="0.00" timeLoss="36.96" rerouteNo="0" devices="tripinfo_46 routing_46" vType="DEFAULT_VEHTYPE" speedFactor="0.97" vaporized=""/>
    <personinfo id="35" depart="28.00" type="DEFAULT_PEDTYPE">
        <walk depart="28.00" departPos="0.00" arrival="87.00" arrivalPos="32.59" duration="59.00" routeLength="62.79" timeLoss="14.66" maxSpeed="1.42"/>
    </personinfo>
    <personinfo id="38" depart="30.40" type="DEFAULT_PEDTYPE">
        <walk depart="31.00" departPos="0.00" arrival="87.00" arrivalPos="32.59" duration="56.00" routeLength="76.15" timeLoss="6.26" maxSpeed="1.53"/>
    </personinfo>
    <personinfo id="21" depart="16.80" type="DEFAULT_PEDTYPE">
        <walk depart="17.00" departPos="0.00" arrival="87.00" arrivalPos="20.70" duration="70.00" routeLength="56.56" timeLoss="29.69" maxSpeed="1.40"/>
    </personinfo>
    <personinfo id="36" depart="28.80" type="DEFAULT_PEDTYPE">
        <walk depart="29.00" departPos="0.00" arrival="88.00" arrivalPos="15.61" duration="59.00" routeLength="52.23" timeLoss="20.36" maxSpeed="1.35"/>
    </personinfo>
    <personinfo id="39" depart="31.20" type="DEFAULT_PEDTYPE">
        <walk depart="32.00" departPos="0.00" arrival="89.00" arrivalPos="14.24" duration="57.00" routeLength="63.31" timeLoss="6.38" maxSpeed="1.25"/>
    </personinfo>
    <personinfo id="44" depart="35.20" type="DEFAULT_PEDTYPE">
        <walk depart="36.00" departPos="0.00" arrival="89.00" arrivalPos="20.70" duration="53.00" routeLength="56.56" timeLoss="13.97" maxSpeed="1.45"/>
    </personinfo>
    <personinfo id="43" depart="34.40" type="DEFAULT_PEDTYPE">
        <walk depart="35.00" departPos="0.00" arrival="90.00" arrivalPos="32.59" duration="55.00" routeLength="50.60" timeLoss="19.90" maxSpeed="1.44"/>
    </personinfo>
    <personinfo id="66" depart="52.80" type="DEFAULT_PEDTYPE">
        <walk depart="53.00" departPos="0.00" arrival="91.00" arrivalPos="14.24" duration="38.00" routeLength="40.49" timeLoss="5.85" maxSpeed="1.26"/>
    </personinfo>
    <personinfo id="41" depart="32.80" type="DEFAULT_PEDTYPE">
        <walk depart="33.00" departPos="0.00" arrival="91.00" arrivalPos="23.34" duration="58.00" routeLength="48.74" timeLoss="21.34" maxSpeed="1.33"/>
    </personinfo>
    <personinfo id="31" depart="24.80" type="DEFAULT_PEDTYPE">
        <walk depart="25.00" departPos="0.00" arrival="91.00" arrivalPos="20.70" duration="66.00" routeLength="89.29" timeLoss="10.31" maxSpeed="1.60"/>
    </personinfo>
    <tripinfo id="28" depart="23.00" departLane="25188983#0_1" departPos="5.10" departSpeed="0.00" departDelay="0.60" arrival="91.00" arrivalLane="141058765#1_1" arrivalPos="28.48" arrivalSpeed="12.07" duration="68.00" routeLength="77.78" waitingTime="46.00" waitingCount="2" stopTime="0.00" timeLoss="61.12" rerouteNo="0" devices="tripinfo_28 routing_28" vType="DEFAULT_VEHTYPE" speedFactor="0.91" vaporized=""/>
    <personinfo id="13" depart="10.40" type="DEFAULT_PEDTYPE">
        <walk depart="11.00" departPos="0.00" arrival="92.00" arrivalPos="15.61" duration="81.00" routeLength="111.13" timeLoss="9.74" maxSpeed="1.56"/>
    </personinfo>
    <tripinfo id="39" depart="32.00" departLane="266887590#0_1" departPos="5.10" departSpeed="0.00" departDelay="0.80" arrival="92.00" arrivalLane="-25188983#0_1" arrivalPos="40.13" arrivalSpeed="14.58" duration="60.00" routeLength="132.62" waitingTime="42.00" waitingCount="1" stopTime="0.00" timeLoss="51.00" rerouteNo="0" devices="tripinfo_39 routing_39" vType="DEFAULT_VEHTYPE" speedFactor="1.08" vaporized=""/>
    <personinfo id="54" depart="43.20" type="DEFAULT_PEDTYPE">
        <walk depart="44.00" departPos="0.00" arrival="93.00" arrivalPos="32.59" duration="49.00" routeLength="57.99" timeLoss="7.38" maxSpeed="1.39"/>
    </personinfo>
    <tripinfo id="42" depart="34.00" departLane="266887590#0_1" departPos="5.10" departSpeed="0.00" departDelay="0.40" arrival="94.00" arrivalLane="-25188983#0_1" arrivalPos="40.13" arrivalSpeed="14.29" duration="60.00" routeLength="132.62" waitingTime="40.00" waitingCount="1" stopTime="0.00" timeLoss="51.04" rerouteNo="0" devices="tripinfo_42 routing_42" vType="DEFAULT_VEHTYPE" speedFactor="1.07" vaporized=""/>
    <personinfo id="19" depart="15.20" type="DEFAULT_PEDTYPE">
        <walk depart="16.00" departPos="0.00" arrival="95.00" arrivalPos="15.61" duration="79.00" routeLength="111.13" timeLoss="9.92" maxSpeed="1.61"/>
    </personinfo>